1000
Lattice="22.384124890204767 0.0 0.0 0.0 22.384124890204767 0.0 0.0 0.0 22.384124890204767" Properties=species:S:1:pos:R:3:momenta:R:3:molID:I:1:forces:R:3 comment="start_100conEC_1000Ntarg_300K.data (written by ASE)" step=0 time_fs=0.0 time_ps=0.0 Nmols=100 energy=-932359.1458306297 free_energy=-932359.1458306297 stress="-0.007737453453119766 -0.0009959458633912435 0.0005635524746737023 -0.0009959458633912435 -0.006075072167868601 -6.732720673508184e-05 0.0005635524746737023 -6.732720673508184e-05 -0.002500753978073307" pbc="T T T"
C        8.17277511       4.16597511       5.81502489      -0.39049999       0.30185019      -0.31537009        0       1.24642512       0.26392045       0.86305743
C        6.91207511       4.93307511       5.54352489       0.07728320       1.40377363      -0.52853901        0       0.23858879       0.96632633      -2.91168695
O        5.91427511       4.12017511       6.01612489      -0.94548451       0.21925282       0.60838136        0      -1.72003226       1.08990453       0.43066197
C        6.40217511       3.08207511       6.62652489       0.42653244      -0.58860165       0.20938596        0      -2.92164568      -1.03593387       1.02840382
O        5.60337511       2.33207511       7.12782489      -1.52136600       0.53984545      -0.17112107        0       1.16155733      -1.23296892       0.63310696
O        7.70287511       3.04757511       6.59642489       1.62556771      -0.26147806      -0.27349640        0       1.43162976      -0.47143429       0.24816479
H        8.81587511       4.79467511       6.43372489      -0.03811960       0.13153098      -0.14679955        0       0.20379158      -0.42549257       0.07214832
H        8.76347511       3.76217511       4.99492489       0.12020693      -0.03497951      -0.17265027        0      -0.32092793       0.18907765      -0.22349449
H        6.63277511       4.97807511       4.49432489      -0.16636780       0.22809646       0.00207768        0       0.78683664       0.57539954      -0.43192675
H        6.91577511       5.94157511       5.93832489      -0.06411507      -0.22317254       0.06793270        0      -0.13922094      -0.03396956       0.39480831
C        9.96000000      20.09060000       9.05164978      -0.04680584      -0.02849109      -0.89230435        1       0.37532195       1.22770555      -0.29619088
C       11.41880000      20.42500000       9.41994978       0.40833951      -0.40470584       0.15051774        1      -0.35089195       1.61504078      -1.00760185
O       11.77380000      19.37500000      10.31044978      -0.80591269      -0.14918270      -0.31075765        1       1.16943875       0.67482462       1.20106534
C       10.79610000      18.51390000      10.45724978       0.78887196       0.39322724      -0.00025508        1      -2.45316830      -1.81406126      -1.77273659
O       10.79370000      17.41670000      10.96284978       0.32366828       0.93006797      -0.43355515        1       0.82042267       1.12868522       0.44198813
O        9.70025000      18.90230000       9.71694978      -0.90585119      -0.51340142       0.03053132        1       0.77218475      -1.47726835       1.03060443
H        9.75773000      20.01760000       7.99454978      -0.14383029      -0.21745341      -0.07261874        1       0.16862275      -0.35073601      -0.42461466
H        9.26815000      20.81050000       9.43324978       0.05813739       0.47966776       0.00937854        1      -0.33430323       0.79276255       0.29859468
H       11.51820000      21.50390000       9.72394978      -0.37264723      -0.05995309      -0.15733172        1      -0.14348948      -1.28362691       0.98582153
H       12.14030000      20.42560000       8.61524978      -0.37889979      -0.05697715      -0.02176229        1       0.00153147      -0.64603517      -0.63152822
C       11.94617511       7.69187511      14.70919489       0.05951146      -0.01950738      -1.66879143        2       0.00804218      -0.72475540      -2.85291430
C       12.09027511       6.46007511      13.74085489      -0.22674994      -0.24411765      -1.69619414        2       0.12336988       0.48310322       0.02516177
O       12.71837511       7.05867511      12.55386489       0.49662350       0.09462019      -0.03325855        2      -0.75666686      -1.72183754       0.92539700
C       13.06057511       8.29657511      12.80185489       0.19770893       0.10342027       0.26542497        2       0.70078612       0.64404026      -0.64610128
O       13.57057511       8.98157511      11.95192489      -0.22714390      -0.50480586       0.10409526        2       0.16145042       0.43529852       0.33673132
O       12.78737511       8.68547511      14.04650489       1.41413089       1.58884420      -0.69667683        2      -0.21367572      -0.19082251       0.82358969
H       12.25447511       7.43557511      15.67260489      -0.06900612      -0.04548518      -0.00524551        2       0.94443177       0.05357671       1.46928528
H       10.95987511       8.09437511      14.74214489      -0.08068093       0.00072174      -0.16151633        2      -0.76826618       0.25627097      -0.01731698
H       11.15877511       6.03347511      13.38472489      -0.18072539       0.05626960       0.07889284        2      -0.16030138       0.10392948       0.19944002
H       12.69857511       5.63837511      14.16476489      -0.37993086       0.23823648       0.06855757        2      -0.03052690       0.67796234      -0.45273376
C        4.16084000      20.28660000       6.57264978      -0.30688463      -0.49249408      -0.82865237        3      -1.22221982       3.07656758       0.47933035
C        4.80677000      21.65680000       6.99624978      -0.91190873      -1.43541987       0.92369071        3      -3.70083232      -0.19761704       1.22655447
O        5.87029000      21.15890000       7.68534978       0.95401028       0.84019777       1.52487427        3       2.58007384       1.64818752       1.14591790
C        6.22002000      19.96310000       7.26424978      -0.57945541      -0.36796392       0.31688058        3       2.59972021      -0.43883168       2.62675060
O        7.27466000      19.48070000       7.61684978      -1.36245464      -0.61868695       1.10792376        3      -0.92014653      -0.39514447      -1.04173160
O        5.22303000      19.40600000       6.65244978      -0.10313628      -0.90776972       0.55297659        3      -0.04287267      -2.30356053      -1.81346300
H        3.74746000      20.44980000       5.59734978      -0.20356905      -0.31501804      -0.17888697        3      -0.31937013      -0.83642614      -0.68133267
H        3.42243000      20.05090000       7.34414978       0.10948100      -0.26012798       0.17079747        3      -0.15361762      -0.38861308      -0.46528166
H        4.13268000      22.12110000       7.76834978       0.03812454       0.00716588       0.06259049        3       0.48599385      -0.07442703      -0.90318144
H        5.02287000      22.42590000       6.27094978       0.09468332       0.23091712       0.23585766        3       0.33775608      -0.18719179      -0.59204866
C       10.92060000      18.85045489      14.04594978       0.33733361       0.16518211      -0.56607962        4       0.22995695      -2.45459346       1.02401847
C        9.84783000      17.81652489      14.49554978      -0.49629770       0.28406679       0.19412011        4       1.50509434      -0.08906301       0.95802818
O        8.68265000      18.27978489      13.84044978       0.35491404      -0.43270468      -0.08605961        4      -1.20610335      -1.75528690       1.96922187
C        8.96203000      19.29878489      13.09184978       0.54748797       0.17615972       0.26682844        4      -1.43251212      -1.06327296      -1.12222213
O        8.22674000      19.76866489      12.30114978       1.12547588       0.18951961       0.56061069        4      -2.15428252       1.43439982      -1.30205284
O       10.18670000      19.62022489      13.16914978       0.66500435       2.03567331      -0.76990693        4       3.81926522       2.77743689      -0.95943664
H       11.71520000      18.25874489      13.60824978      -0.11103561      -0.15725259      -0.03238629        4       0.24553200       0.45489023      -0.80855147
H       11.38100000      19.44887489      14.80734978       0.02384652      -0.12119621       0.10493092        4      -0.13883948       0.47432521       0.64475490
H        9.81629000      17.77081489      15.58604978       0.20924966       0.37302285      -0.04870358        4      -0.88032757       0.23257835      -0.03108495
H       10.09230000      16.81192489      14.15884978      -0.33117506       0.09653014      -0.03433177        4      -0.08807504      -0.02883607      -0.33294266
C        7.82612489      11.14382489       5.35042489       0.05647515       0.32573269       0.16279328        5      -1.17141072       1.39654116      -0.37478800
C        8.63282489      11.78312489       4.24712489      -0.05531895       0.55410179       0.16500416        5       1.69043894       1.14975822      -0.94862592
O        8.00652489      11.45492489       3.00682489       0.77225997      -0.37291894       0.34286554        5      -1.88796872      -1.01638141      -0.06100718
C        7.01212489      10.57782489       3.28002489      -0.09655572       0.42154994      -0.33338524        5      -2.53460800      -0.32871746      -2.11519585
O        6.15752489      10.19702489       2.42462489      -0.53285288      -0.06171572      -1.48296874        5       3.45595693       0.84361204       3.27883703
O        7.02502489      10.23492489       4.60002489      -0.95588008      -0.05032015      -0.23412623        5      -0.54558761      -1.18979254      -1.68752878
H        7.04692489      11.72962489       5.88532489      -0.18039622       0.08065770       0.02147661        5       1.23262027       0.41298465      -0.40028342
H        8.50022489      10.73562489       6.06202489      -0.22570843       0.18129952      -0.20098931        5       0.20082741      -1.08668442       0.67626041
H        9.62912489      11.37172489       4.07752489       0.07374973       0.10850528       0.43013813        5       0.18699948      -0.23309376       0.93762249
H        8.78902489      12.86006489       4.23942489      -0.15444008      -0.14611913       0.06023533        5      -0.40343598       0.12274073       0.47046185
C       12.55067511      11.79160000       9.60429000      -0.71881826      -0.17124826       0.31386170        6       0.18801362       0.13533630       2.46101908
C       11.98057511      10.41720000       9.61239000      -0.37792489       0.18283495       0.71944188        6      -1.92346329      -1.44865071       1.38822977
O       11.23147511      10.31920000       8.40284000       0.43955155      -1.19408084      -0.36723868        6      -0.43276445       0.58116276      -0.87445603
C       11.39677511      11.43750000       7.67953000       0.30383706      -0.92535559      -0.88537560        6       1.31907783      -0.50339970      -1.24983459
O       11.08847511      11.56650000       6.50587000      -0.70568849      -0.54949097       0.55866581        6      -0.14302348       0.12731991       1.91131198
O       12.20367511      12.31110000       8.34860000      -1.33861987      -0.27863434       0.52164455        6      -0.83712788       0.43798351      -0.71570049
H       13.61497511      11.74240000       9.74284000       0.22933036      -0.02606115      -0.18397305        6       0.73249292       0.29045273      -0.40573266
H       12.16307511      12.29340000      10.55060000       0.10910841      -0.11032884       0.08861189        6       0.12213304       0.35417143      -1.67988203
H       11.23707511      10.30920000      10.45410000       0.02849429      -0.24004486       0.02015002        6       0.85390636      -0.11214739      -0.80536930
H       12.68037511       9.59179000       9.65489000       0.38247781      -0.06375205      -0.10197474        6       0.15969686       0.00274335      -0.06073460
C        0.46927511       8.05322489      12.30282489       1.55140699      -0.60394662       0.75876985        7      -2.70805376       1.31521047       1.37017431
C        0.25057511       9.28952489      11.42362489      -0.07592177      -0.15260657      -0.17686792        7       3.52742424       0.13039060       1.81398913
O        0.63497511       8.83242489      10.16242489       0.94564824       0.29432879      -0.72978125        7      -0.60503833       2.00928238      -0.92827030
C        0.97367511       7.57942489      10.17522489       0.49337921       0.19541427       0.22238695        7       0.33240555      -0.99889603      -0.57585726
O        1.24087511       6.98822489       9.16302489      -0.71036488       0.13244152       0.03468456        7       0.15672669      -0.64333354       0.66709793
O        0.95597511       7.09092489      11.42872489      -0.66779304      -0.41303842      -0.64670121        7       0.52302203      -1.23891037      -0.67062123
H       -0.54822489       7.78732489      12.73069489      -0.01238185       0.31575305       0.09652742        7       1.34303443      -0.27974510      -0.66197572
H        1.08927511       8.28152489      13.14240489       0.12176342      -0.24820631       0.03112558        7       0.97893858      -0.35455025       0.33227633
H        0.80627511      10.19102489      11.76552489       0.40290516       0.24074597       0.11183189        7       0.33247168      -0.75855151      -0.61841430
H       -0.71062489       9.56412489      11.51382489       0.06173253      -0.16340327       0.22427419        7      -3.82114315       0.90166361      -0.64533108
C       15.99361489      15.34891489      20.74151489      -0.68637917      -0.57680041       0.02311296        8       2.01367544      -1.84627995       0.94182984
C       16.83257489      15.89702489      21.92710289       0.30100398       0.10582815       0.31822357        8       3.36537076       0.47037571       0.27035507
O       16.23977489      15.41121489      23.16699689       0.07608788      -0.38430129       0.29115554        8       1.22298562      -1.08794211      -2.12655840
C       15.22509489      14.63703489      22.81299589       0.07279488      -0.21351008       0.92490559        8      -2.34974499       2.08558826       1.61185606
O       14.39736489      14.35527489      23.65758489       1.37514695      -1.46970156      -0.15634671        8       0.38372128      -1.33844633      -1.17349424
O       15.01539489      14.60157489      21.48317089       0.32374745      -0.13991276      -0.14277835        8      -0.42609087      -0.69106370      -0.28179376
H       16.53968489      14.62091489      20.05107489       0.08376178       0.01096657      -0.07392532        8      -0.40549524       0.89567677       1.23210245
H       15.60053489      16.08430489      20.07221489      -0.00488449      -0.06198238      -0.01913608        8      -0.81972203       0.69357454       0.15704316
H       16.77617489      16.94238489      22.11881489      -0.16057457      -0.08220724       0.02020588        8      -0.29366840       1.18573616      -0.76104405
H       18.01010489      15.72125489      21.86925889      -0.02386092      -0.15546854      -0.16217773        8      -2.73886381      -0.35643879       0.15855960
C       19.45870000       9.21742489      22.04470000       0.36518605       0.87204965      -0.50737435        9      -0.53822387      -0.90950766       0.29806809
C       18.38390000       8.14532489      22.02770000       0.62200306      -0.61863322       0.84595517        9      -1.60132745       1.82224963      -0.12029580
O       18.05700000       8.15202489      20.62610000      -0.32856030       0.65518438       0.88812979        9      -0.66412603       0.50626201      -0.08321831
C       19.07880000       8.68542489      19.91020000       0.09585946      -0.05401368       0.19153803        9      -0.85697395      -3.05392310      -2.71750759
O       19.11440000       8.48502489      18.69810000      -1.47168137      -0.23829670       0.64832544        9       0.29678333       1.76848188       2.58492481
O       20.01880000       9.14352489      20.72250000      -0.99467470      -0.25771421      -0.23726023        9       0.64905400       0.64355758       0.16784334
H       20.15540000       9.07082489      22.84370000      -0.02728424       0.25061572       0.01970022        9       0.99226352      -0.23687100       0.03733451
H       19.02530000      10.15732489      22.16630000       0.00419646       0.21961129      -0.07425066        9      -0.67767652       1.90495230       0.06637938
H       17.41800000       8.36592489      22.65350000       0.29960606       0.16732286       0.16957215        9       2.07902732      -0.68822430      -1.10390680
H       18.86790000       7.22592489      22.17070000      -0.29780272       0.04037576      -0.14243712        9       0.16463333      -1.70859290       0.90222056
C        0.29115400      -0.62131600      21.69998989      -0.08493628       0.52615344       0.80129317       10      -0.24671633      -0.58173061       0.51241925
C        0.30515600      -1.11232000      20.26761489      -0.61699882      -0.38682195      -0.19565670       10      -1.39053862      -0.77232627       1.37113378
O        1.27891000      -0.25439600      19.68726489      -0.41257360       0.29376825       0.48648505       10      -0.24773592      -0.71816758      -2.75458964
C        1.82020000       0.58158000      20.55333489      -0.20294700       0.26089375      -0.62856555       10       1.04236742       2.19646036       0.30429751
O        2.63316000       1.47752000      20.32003489      -1.09137646      -1.75841861       0.75215739       10      -1.47861622      -2.17725549       0.01263216
O        1.27909000       0.34921500      21.71971589       0.14226655       0.04484992       0.24103347       10       1.74950810       1.95538488       1.65038246
H        0.60257000      -1.39017000      22.37568129       0.01142092       0.03836271       0.07445771       10      -0.18676474      -0.47582560       0.67532501
H       -0.59694900      -0.10890400      22.02940489      -0.22891048      -0.33502759       0.01366588       10      -0.65351345      -0.33695372      -0.02561275
H       -0.74485900      -1.07598000      19.92669489       0.05445262       0.22571439      -0.05578316       10       0.96247494       0.47770251      -0.89749722
H        0.58010900      -2.17122000      20.24695489       0.19431264       0.06030817       0.23481366       10       0.49056539       0.26174296      -0.41801628
C        7.12312489       1.28442489       9.86523000      -0.18677828      -0.08301180       0.59747440       11       1.03734297      -1.27655564      -0.92147018
C        6.41202489       2.45962489      10.34930000      -0.45291826      -0.50731367       0.02846348       11      -4.34277873       1.49497398      -2.74167565
O        6.62152489       2.57472489      11.69170000       0.49535955      -0.90376846       0.63728976       11      -0.87546899       2.34163795       1.63046158
C        7.36452489       1.61682489      12.10870000      -0.13188229      -0.27947630      -0.40526121       11       2.46907329      -0.80384528       3.23040719
O        7.79292489       1.52912489      13.26470000      -0.72996586       0.79622412       0.12320471       11      -0.77792483      -0.21342010      -1.94449763
O        7.69072489       0.81982489      11.11680000      -0.44243897       0.49364729      -0.19066525       11       1.16257070      -1.64305915      -1.11573392
H        7.81642489       1.64512489       9.09942000      -0.05877546       0.29253412      -0.15155889       11       0.88796276      -0.76047711       0.57708526
H        6.54922489       0.47502489       9.35969000      -0.15296473       0.27740955      -0.35012562       11       0.18783273       0.54466582       0.80687902
H        5.33082489       2.25922489      10.19930000       0.26751875       0.18124296       0.05807802       11       0.25527081       0.61014515       0.09378905
H        6.64052489       3.38242489       9.78944000       0.02982173      -0.10076895      -0.30805697       11       0.15635452      -0.17689831       0.52632670
C        6.00217511      16.15927489       8.85017511       0.16773768       0.69106368      -0.32845892       12       1.69418319      -0.54614539       0.15979844
C        6.07937511      16.94311489      10.15407511       0.28003197       0.18236950      -0.56556671       12       1.11076689       2.72260847      -0.09584344
O        5.19587511      16.30799489      11.05007511      -0.40474604      -0.76159584      -1.08179736       12       0.23715952      -0.67393528       0.59089211
C        4.53047511      15.37831489      10.37247511      -0.82273926       0.24260233       0.01135221       12      -1.29420025      -1.78652170       2.19977020
O        3.68607511      14.65740489      10.86107511      -0.21153646      -0.01930090      -0.58164367       12       0.15899131       0.72563349      -0.01836321
O        4.92627511      15.23089489       9.15487511      -0.01367746      -0.05104029      -1.61837052       12       1.32688111       0.44378598      -2.75411554
H        6.99257511      15.65958489       8.62227511       0.30018962      -0.00523087       0.20411117       12      -1.46277213      -0.17657509       0.36691038
H        5.81687511      16.75362489       7.95867511      -0.71612625      -0.00696093      -0.05297874       12      -0.60801449       0.06613377       0.14178044
H        5.59637511      17.91422489      10.04057511       0.02858412      -0.38420482      -0.22584935       12       0.40983196       0.41347778      -0.40206753
H        7.12817511      17.17416489      10.56707511       0.16941571      -0.03846339       0.42179927       12      -1.59031859      -0.89165574      -0.38827498
C       11.73000000      12.36757511      -0.37927511       0.08957215      -0.44972907       0.23204230       13       2.13834120      -0.99119828      -0.23578015
C       12.06530000      11.39537511       0.81592489      -0.25991854      -0.24537877      -0.11125921       13      -0.91338029       1.59421686      -1.05464862
O       11.86110000      12.22707511       1.95982489      -0.42815495       0.79013928       1.06452237       13       0.32832627      -0.05351431      -0.02492390
C       11.11850000      13.28997511       1.63012489       0.32240115      -0.44753903       0.10700672       13       0.49843160       1.34522872       3.18365831
O       10.77680000      14.07567511       2.52452489       1.14840384      -0.59742269      -0.78305193       13       0.09839001      -1.30881265      -2.93282146
O       10.93810000      13.36337511       0.31682489       0.39968501       1.17721147       0.41675662       13      -1.06598424       0.23558142      -1.01224790
H       11.37730000      11.85807511      -1.35957511       0.20117312       0.04084251      -0.13804580       13      -0.46208188       1.13117665       2.00645365
H       12.67840000      12.87517511      -0.70177511      -0.35341633       0.14726855      -0.12181348       13      -0.86967608      -0.25057311       0.37676420
H       13.08540000      11.06937511       0.76282489      -0.17887808      -0.08025779      -0.10646250       13       0.36600273      -0.50069953       0.13107734
H       11.31000000      10.65147511       0.94592489       0.20577317      -0.11450068       0.18880953       13      -0.06440089      -1.18527061      -0.43661309
C        4.16352489       7.85192489      21.93550000      -0.09503603       0.38244888       0.38347319       14       1.32573252       1.10770573       0.05507086
C        4.22602489       9.38292489      21.87810000       0.66247809      -0.34914937      -0.10971720       14       0.53225801      -0.62155752      -0.42645697
O        2.97462489       9.69562489      21.30820000       0.28164653      -0.20979414       0.08797138       14      -1.24742106       0.92337296      -0.66879245
C        2.37322489       8.60782489      20.78360000       0.78632403      -0.92963937      -0.42468336       14       0.58930153       1.48872070      -0.27196466
O        1.39542489       8.64952489      20.08520000       0.22669322      -1.62354615      -0.41345283       14       0.22769404      -0.26283004       0.48481688
O        3.09222489       7.55372489      21.08010000       0.66576410       0.48602363       0.31933324       14      -0.56072764      -1.86697948      -0.37867820
H        3.98752489       7.56062489      22.95740000       0.16356731       0.25659821       0.00436423       14      -0.32331656      -0.71074252       0.19457838
H        5.07322489       7.44202489      21.50920000      -0.15255903      -0.01966476       0.31092939       14       0.04359665      -0.44010145       0.07922395
H        5.06152489       9.76492489      21.26780000       0.21412058      -0.01554763      -0.11284696       14      -0.48114070      -0.03554684       0.07756240
H        4.23642489       9.78792489      22.85690000       0.28246485      -0.51008656      -0.14804866       14       0.28888390       0.59933404       0.98687236
C        8.18047000      -0.08372489       5.95247511      -0.55541151       0.59346670       0.53875725       15       0.83716599       2.64101049      -0.32457312
C        9.25615000       0.54347511       5.05637511       0.17635999       1.22882948      -0.31483935       15      -0.49591496       0.81892688      -1.77340658
O       10.36910000       0.87577511       5.90667511       0.66949984      -0.66358955      -1.15606829       15       0.12951725       0.15515897      -0.18065857
C        9.99714000       0.76427511       7.17807511       0.31523248       0.78053476      -0.19389648       15       0.92654075      -2.04671268       1.85822586
O       10.73590000       0.90377511       8.16837511      -0.54345436      -1.37150857       0.87369798       15      -2.48774891       0.20729023      -2.84105666
O        8.74418000       0.21357511       7.20487511       0.89580214       1.26256947       0.56189165       15       0.59617488       0.34054042       2.58200004
H        8.08961000      -1.08852489       5.75677511      -0.23719988       0.16931741       0.22158757       15       0.43144717      -2.65340058       0.04943381
H        7.15867000       0.27317511       5.90957511      -0.05172708       0.17471386       0.15597650       15       0.08931604       0.91571920      -0.19969992
H        9.00926000       1.49847511       4.55977511       0.09654164       0.01498237       0.10235624       15      -0.42572597      -0.55464726       0.40699866
H        9.51412000      -0.15362489       4.24677511      -0.28398162      -0.22997638      -0.01023763       15       0.49936457       0.18665660       0.47831475
C       16.40002489       7.13057511      17.47623489      -0.51914254       0.12023783      -0.41707986       16       1.29092133      -0.65016044      -0.13236105
C       14.94423489       6.84887511      17.65907489       0.72620904      -0.54038534       0.20689818       16       0.77363609       0.12371974       0.94407116
O       14.48329489       6.70967511      16.32989489       1.01862278      -1.10359322      -1.50106205       16      -2.46620138      -0.93404504       1.21567187
C       15.46899489       6.67667511      15.48176489       0.38530148      -1.03580649      -0.47630564       16      -0.41576783      -0.78474091      -2.77405971
O       15.34082489       6.46907511      14.30612489      -0.68423222      -1.08050320      -2.14601622       16      -0.55401137      -0.03621401      -0.45683758
O       16.60843489       6.86337511      16.02616489       0.62814178       0.39911941      -0.98175324       16       2.94101696       0.67016576       3.18636833
H       17.06000489       6.53887511      18.16932489       0.01883282      -0.09974255      -0.17947914       16      -0.35557871       0.38629084      -1.38117853
H       16.55878489       8.15757511      17.67088489      -0.06680065      -0.07354656       0.15439462       16       0.78899978       1.17188188      -0.14842764
H       14.46770489       7.71447511      18.03416489      -0.07715267      -0.28724452       0.22480129       16      -0.73404266       0.79027263       0.73299802
H       14.88901489       6.05727511      18.42838489      -0.15610148       0.03848245       0.33691714       16      -1.11956435      -0.43000531      -1.05953979
C       18.46887489      13.65974978      13.16140000       0.32464026      -0.69291808       0.16057152       17       0.31740854       3.21493790       0.83852627
C       17.00176489      14.06534978      13.10760000      -0.14379980       0.10856130       0.26762818       17       0.23475355      -0.87968325      -0.31904896
O       16.63107489      13.82814978      14.45860000       0.17761014      -0.60527139      -0.06983624       17      -2.61244870       0.52734125       0.87017540
C       17.55635489      13.24094978      15.23710000       0.09087229       0.86839074       0.70046690       17      -1.40010060      -0.42495181      -0.65984024
O       17.38091489      12.82824978      16.35520000      -0.50974687       0.86069308       1.22016212       17       0.28292345       0.84805195      -0.84451100
O       18.60332489      13.09934978      14.47310000       0.67857400      -0.44283126       0.12458948       17       2.98961191      -1.78473876      -0.50482407
H       19.03255489      14.60724978      13.24230000       0.04487271       0.06427171      -0.03952853       17       0.14594167      -0.36271339      -0.33477797
H       18.87021489      13.14584978      12.30120000      -0.05677420       0.19752145       0.08062128       17       0.05381371      -1.07480276       0.43078525