48
Properties=species:S:1:pos:R:3:molID:I:1:forces:R:3 charge=0 multiplicity=1 dipoleMoment="-0.7650452175250123 0.5180826333975069 0.8324736616598988" atomizationEnergy=0.0018679951140096577 config_type=DMC4 Nmols=4 Comp=DMC(4) energy=-37424.09640445962 pbc="F F F"
C       -0.53737664      -0.22861473      -4.65808582        0      -0.60267788       0.92598243      -1.38357025
O       -0.62631762       0.54678124      -5.60724688        0       0.02414757      -1.28347223       1.69789576
O        0.60454136      -0.68934470      -4.12500715        0       0.20538003       0.49696218       0.38014947
O       -1.58708167      -0.78045171      -3.99130297        0       2.36250406      -0.08643047      -0.02257773
C        1.84486532      -0.08699973      -4.65864801        0      -1.10502206      -2.89339336      -0.70204091
C       -2.90230155      -0.55338371      -4.39741182        0      -1.16838124       0.55351733       0.32109766
H        2.66657448      -0.79335374      -4.48774290        0      -0.23288367       0.33887320       1.05418891
H        1.72732341      -0.23301573      -5.70782900        0      -0.02953949       1.01572566      -1.13385908
H        1.97950935       0.90098125      -4.32095385        0       0.20079230       1.13232119       0.34314084
H       -3.13665557      -0.86179072      -5.40303087        0       0.46350445       0.38424891      -0.81320238
H       -3.47168660      -1.26133072      -3.81512189        0      -0.32348057       0.00694199       0.61450623
H       -3.23355269       0.48338526      -4.16843987        0       0.23139016      -0.59571181      -0.36770363
C        1.25159538       0.16631228       1.14445102        1       1.34549576      -0.12806954      -0.36331541
O        2.46727943       0.17342527       0.88744503        1      -3.18936366       0.06093646       0.54917047
O        0.64619535       0.58387029       2.25401497        1      -0.33234713       0.79540839      -0.30819008
O        0.23356637      -0.29173273       0.36298305        1       0.82997511       0.42217805       1.11939729
C        1.36649442       1.41216028       3.17590809        1       1.72303134      -2.59128185       0.29115343
C        0.61409640      -0.65844172      -0.91459692        1       1.13611670       1.45391293      -3.77088033
H        0.71653038       1.71261823       3.95858717        1      -1.17441916       1.16934751      -0.03677813
H        1.94324732       0.66687226       3.75408006        1       0.74636782       0.53546779      -0.31221451
H        2.03156829       2.13202739       2.68633103        1      -0.47738113       0.03426496       0.21090428
H       -0.25470063      -0.91644371      -1.56155992        0       0.38080736      -0.50638830       1.11478950
H        1.00483036       0.25639427      -1.54059100        1      -0.35662372      -1.30489046       1.46102730
H        1.44813538      -1.38328874      -0.93789297        1      -0.65026323       0.01517355       0.06694341
C        3.84527636      -6.04490185       0.83535004        2      -0.67701851       0.56523873      -2.92301154
O        4.11414719      -6.02395964      -0.35649994        2       0.38349753      -0.34596714       1.01275308
O        3.21733737      -5.06064796       1.44174302        2      -0.92816908       0.77724912       1.52586183
O        3.99193549      -7.07076359       1.65480709        2      -1.07489582       1.09132024       2.14924383
C        2.89510536      -3.77217364       0.80994707        2       0.09312198      -0.33046773       1.38081824
C        4.60385418      -8.21334553       1.20414901        2       3.13923097      -0.19709488      -0.98050556
H        2.52052736      -3.09047365       1.63904107        2      -0.31376884      -1.34638032      -0.92323184
H        3.84998226      -3.31396174       0.65368205        2       0.52912064       0.27936715      -1.28157640
H        2.19799232      -3.88617373      -0.05456094        2       0.80336378       0.14810791       0.68496533
H        4.88072443      -8.95412445       1.94170904        2      -0.72768192       0.27687489       1.06354721
H        4.04868460      -8.69955063       0.45574707        2      -0.77953522      -0.53430725      -1.24725819
H        5.60292816      -7.90906382       0.82979906        2      -0.45812123      -0.33419004      -0.47110383
C       -4.29972458       6.15549946       2.66712904        3      -0.25404726      -0.05155573      -0.63456518
O       -3.55253172       6.33993006       3.60586810        3      -1.05071342      -0.72178557      -0.99119993
O       -5.25390482       5.16522551       2.48020816        3       0.84789312       1.29646334      -0.28592105
O       -4.36515141       6.93009806       1.54223502        3       0.25062928      -0.99437018       0.17199092
C       -5.27366066       4.02317238       3.32017708        3      -0.02463448       0.52513344       2.03628872
C       -3.35651374       7.96652937       1.36726403        3      -3.25459647       1.65297087       2.27819539
H       -6.08236647       3.31397128       3.04877806        3       0.66251110       0.67035736      -0.29849469
H       -4.29522085       3.59524322       3.39460111        3       0.65957597      -0.81280359      -0.71717687
H       -5.39729357       4.31324244       4.38355398        3      -0.57043599       0.16743649      -0.41554856
H       -3.74682164       8.64476395       0.57494903        3       0.49453137      -0.86294935       0.22446884
H       -3.47802353       8.55221081       2.33337307        3       1.02951334      -0.37904957      -1.11287340
H       -2.39241052       7.57472324       1.21750700        3       1.21497013      -0.49491977      -0.25375967
27
Properties=species:S:1:pos:R:3:molID:I:1:forces:R:3 charge=0 multiplicity=1 dipoleMoment="0.8650539832930869 0.3013245300974531 -0.2865468031487052" atomizationEnergy=-0.05506659743797736 config_type=DMC:EMC Nmols=2 Comp=DMC(1):EMC(1) energy=-19781.346897300256 pbc="F F F"
C       -1.69490600       1.00597644      -0.76800084        0      -0.86492830      -0.31364025      -1.08887124
O       -1.01240301       0.27060649      -0.14478786        0       0.35511171      -0.20921398       1.39063302
O       -2.84511995       1.54574847      -0.33449486        0      -0.37593520       0.23592577      -2.43330839
O       -1.40789807       1.25309753      -2.07165384        0      -3.29361836       2.53229873       2.22292140
C       -3.18244195       1.21974349       0.98137212        0       0.07587720      -1.49481565       2.43938837
C       -0.19220002       0.75867546      -2.43127489        0      -2.63212639      -2.57792023      -4.12754204
C       -3.54934096      -0.27224350       1.27301717        0       2.17126998      -1.54707336       0.55444203
H       -2.28466296       1.51052952       1.50869513        0      -0.09105874      -0.02995196       1.05616958
H       -4.05486298       1.75716448       1.32729709        0       0.03457350       0.94015552      -0.51101646
H       -0.27833202      -0.30303052      -2.31343699        0       0.99997890      -0.76406489       0.15334444
H       -0.20488901       0.99617749      -3.48930979        0       0.51203802      -0.24019883      -0.52019509
H       -3.63509202      -0.67291850       2.36129212        0      -0.31533489       1.77396100      -1.38307992
H       -4.46321297      -0.54314250       0.73218811        0       0.33485888      -0.23184457      -0.03455844
H       -2.62434101      -0.90039349       1.01753116        0      -1.60726016       0.64886321      -0.48626923
H        0.60272998       1.19702148      -2.04384184        0       3.36634223       1.86253189       2.29421271
C        2.19994998      -0.89557850       0.67816615        1      -5.04953423      -1.02802938      -1.53592891
O        1.00276399      -0.84648550       0.30235112        1       3.79144066      -0.21326461       1.03102092
O        3.11261392      -0.08531951       0.31483814        1       3.86671339       3.08477970      -0.83209056
O        2.69902110      -1.87920249       1.44057119        1      -0.73208712      -1.17978287      -0.02532713
C        2.96770287       1.05320847      -0.65315986        1      -3.07233224      -0.92792519       1.50410685
C        1.72407997      -2.99383354       1.49369013        1      -1.42173657       2.94972485      -0.31011774
H        3.17290902       2.06940460      -0.28550786        1      -0.12825051      -0.67343912       1.09495021
H        3.61564898       0.98302251      -1.47972488        1       0.87756756      -1.14280481      -0.98985860
H        1.89006400       0.95939851      -0.92173886        1       1.06104874       0.40643357      -0.08583128
H        1.67625201      -3.53972149       0.58048815        1       0.29266952      -0.29785548      -0.81673371
H        1.83368099      -3.60191941       2.31514907        1       1.46745164      -1.38143772       1.92345261
H        0.73565698      -2.53623962       1.68572712        1       0.37304128      -0.18338185      -0.48927354
24
Properties=species:S:1:pos:R:3:molID:I:1:forces:R:3 charge=0 multiplicity=1 dipoleMoment="5.967596776055102 10.501366808488825 6.422934258615172" atomizationEnergy=1.4731190113748638 config_type=VC3 Nmols=3 Comp=VC(3) energy=-27867.365092198725 pbc="F F F"
C       -0.68087459       0.38263083      -1.32596445        0       2.36199741       0.95438365       0.05710463
C       -1.49606454       1.40523279      -1.05129242        0      -0.07404442      -1.33078784       0.09540491
O       -2.82312369       0.95517880      -1.23583448        0       1.72529697       1.70729563       0.33028711
C       -2.68603158      -0.25608918      -1.69835544        0      -4.48797514      -4.05380974      -2.21784842
O       -3.66104269      -0.94117421      -2.02111340        0       2.41326200       1.13735372       0.72851463
O       -1.40002954      -0.65512818      -1.82453549        0      -0.68934134       0.00148075       0.39235521
H        0.43868241       0.21805681      -1.24624145        0      -1.87336412       0.49513782      -0.15009783
H       -1.37601256       2.37742686      -0.68095046        0       0.22195397       0.91057546       0.45617669
C        0.47315744      -2.81162930       2.00716448        1      -0.62867926      -2.35155161      -1.40936179
C       -0.29387558      -2.18449116       1.12136555        1      -0.38417797       0.27891656      -0.89728996
O       -0.28650659      -2.83412409      -0.16726345        1       0.57445912       1.05394562       3.10890361
C        0.57095945      -3.85228515       0.07611655        1       0.44898812      -1.50245522      -3.24904157
O        1.02483439      -4.58518314      -0.73848844        1      -0.18766962      -0.49395031      -1.63190926
O        0.92491043      -3.98194122       1.30231357        1       0.42126162       1.61116140       3.93629033
H        0.59958440      -2.97023010       3.06528544        1       0.00481005       0.97238783       0.08254356
H       -0.90121758      -1.31015420       1.17436552        1      -0.19046961       0.40372749       0.10135867
C        3.03389335       4.02764368       1.29219151        2       2.23951389      -0.46988804       1.07880050
C        2.03496933       4.61270475       0.68065357        2       4.43027070       9.34832966       0.11898068
O        0.95730740       3.96759677       0.69245756        2      -4.18036165      -2.16043795      -1.41404216
C        1.36426938       2.70628572       0.96141654        2      -3.20038991      -2.23576157      -0.77411698
O        0.72670740       1.76076877       0.58805257        2       0.64545565       0.07566449       0.94684910
O        2.48831248       2.76271892       1.57658255        2       2.81995625      -1.11037563       1.16065267
H        4.08522844       4.29435968       1.67486954        2      -2.14094282      -0.61203639      -0.93026228
H        2.03834438       5.76749277       0.45433256        2      -0.26608833      -2.62968620       0.08743039
36
Properties=species:S:1:pos:R:3:molID:I:1:forces:R:3 charge=0 multiplicity=1 dipoleMoment="-1.2367839427053027 0.04443389346411031 1.0553401189862153" atomizationEnergy=-0.45693701983350543 config_type=DMC3 Nmols=3 Comp=DMC(3) energy=-28068.53064136088 pbc="F F F"
C       -4.64145279       2.36690903      -3.67796469        0       0.39385881       1.38791589      -2.45475186
O       -4.18464279       2.44299102      -4.83653545        0      -1.04938091      -0.36469419       3.07249078
O       -5.32349586       3.34451199      -3.04692173        0      -0.34766188      -0.45731716       0.66558450
O       -4.57531786       1.33572602      -2.82865071        0       1.22171612      -1.08338345      -0.47114889
C       -5.54868364       4.67178679      -3.57952571        0       2.99601661      -2.02123057      -3.65440341
C       -3.77437472       0.18869300      -3.31590676        0      -0.37263800      -1.10749378       0.27574836
H       -6.02181292       5.25294495      -2.85288668        0      -0.39519766       0.84310576       1.27123298
H       -4.52217102       4.99658394      -3.98213673        0      -1.43928773       0.27828110       1.07150225
H       -6.13186073       4.60998678      -4.51663971        0      -0.22072453      -0.07364656       0.55341282
H       -3.56366181      -0.59987003      -2.51007175        0      -0.97356737       1.57483048      -0.55117137
H       -4.35495377      -0.32309601      -4.12429571        0       0.64544004       0.56599298       0.50007562
H       -2.76740384       0.47110400      -3.64279675        0      -0.45820319       0.45752036      -0.28040247
C        3.63283324       0.96755201       1.09758139        1       1.97872457      -0.45969521       2.00118824
O        4.71826029       1.02582598       1.69259131        1      -2.19141246       0.51953522      -1.49111289
O        2.78554511       1.95338404       0.78489536        1      -0.00138508      -0.10865292      -0.17002727
O        3.04442906      -0.15084600       0.74220234        1      -1.05178420      -0.42087996      -0.61914052
C        3.26225924       3.24785995       1.03240633        1       2.16603279       1.66910375       0.17514026
C        3.61852312      -1.41813505       0.96716237        2       1.48406198      -0.81424492      -0.91196240
H        2.66148806       4.06284809       0.56699133        1       0.19976454      -1.14496541      -0.07430918
H        3.35181522       3.48731494       2.08816838        1      -0.54601254      -0.30039863       0.48792801
H        4.34880495       3.30608201       0.74196136        1      -1.06481130       0.12754581      -0.34575627
H        3.46303606      -1.81286502       1.97637534        2       0.14009296       0.48005782      -0.12769706
H        3.19404221      -2.10571194       0.24241634        2      -0.82231202       0.02532083       0.13335132
H        4.67881727      -1.46701097       0.63524634        2      -0.27291744       0.52051380       0.88670133
C        1.23565614      -3.36085606       2.40424037        2      -1.00458294      -1.28840623      -1.73268788
O        1.75292814      -4.08712816       1.57843637        2      -0.40947271       0.64851328      -0.01624247
O        1.67886019      -3.18445396       3.60682845        2       0.06325166       1.15804918       2.04380290
O        0.05969917      -2.69909191       2.28702426        2       0.47331517       0.19173129       0.48835751
C        2.90484810      -3.75906491       4.04022121        2       0.59341040      -0.29973035      -0.81189125
C       -0.73790580      -2.83377695       1.09659839        2       1.44899829      -2.04819689       0.99912435
H        3.08195424      -3.44691801       5.06507444        2      -0.18461791       0.23579107      -0.00497038
H        2.85077429      -4.84485102       4.00339937        2      -0.07004141      -0.14562666      -0.07812114
H        3.73352218      -3.43283200       3.38695836        2      -0.28510514      -0.11447163       0.31022080
H       -1.58987582      -2.23351598       1.21339834        2      -1.06303843       0.92483268       0.26236277
H       -0.14406283      -2.57401395       0.27127233        2       0.66271815       0.63277615      -1.37140074
H       -0.99928582      -3.88835406       0.98532337        2      -0.24523688       0.01249592      -0.03037994
18
Properties=species:S:1:pos:R:3:molID:I:1:forces:R:3 charge=0 multiplicity=1 dipoleMoment="-8.144688472757949 6.519291424808983 -1.593180032524032" atomizationEnergy=0.9466477799023951 config_type=EC:VC Nmols=2 Comp=EC(1):VC(1) energy=-18611.484741881988 pbc="F F F"
C       -0.47079283      -1.59873033      -0.32791045        0       2.12509357       1.70928837      -1.51165366
O        0.41377518      -2.58722734       0.10186554        0      -1.06953637       0.62737275      -0.68743999
C        1.37562513      -2.69682336      -0.92425448        0      -1.85112449       0.71447185       2.20864745
O        1.01881719      -1.90251029      -1.84403145        0       0.88061901       3.00382091      -3.56098337
C        0.10587917      -0.92582929      -1.44253051        0      -4.15412823      -3.50697570      -0.15301814
O        2.35608125      -3.30670333      -0.92775548        0       2.65542838      -2.73859948       0.78141777
H       -0.45407084      -0.57672429      -2.41917634        0       1.13603124       0.06383085       2.60740764
H       -1.37693584      -1.41552424       0.23266454        0       0.37358014       0.03052463       0.24776519
C       -2.07969975       2.44451070      -0.01739245        1       0.82624940       0.93160250       0.11136839
O       -1.12108386       1.40944767       0.21598855        1      -2.45943800      -0.86044155      -2.71306024
C       -0.21068384       1.69860172       1.09754753        1      -0.29125107      -0.89594549       0.83873827
O       -0.38197884       2.93461561       1.50729060        1       0.04655109       3.10145958       0.68071422
C       -1.56412780       3.58837581       0.92962456        1      -0.68419046      -0.30006388       0.14138873
H       -2.11006594       2.73055577      -1.06487048        1       0.50119763       0.00457458      -0.24268686
H       -3.07459092       2.07617879       0.18719155        1      -0.23208885      -0.12974654       0.60226434
O        0.52521014       0.86227572       1.51284456        1       1.03055938       0.42837766       0.41986478
H       -1.43648684       4.64454365       0.49819154        1       0.74473646      -1.87711097       0.20394352
H       -2.29697990       3.76036882       1.73513258        1       0.42192278      -0.30704201       0.03157326
