15
Properties=species:S:1:pos:R:3:forces:R:3 charge=0 multiplicity=1 energy=-10425.81343963755 dipoleMoment="-0.47582849666293325 0.2805349657540091 -1.298518227657735" atomizationEnergy=-0.5461770484165404 config_type=EMC Nmols=1 pbc="F F F"
C        0.55322343       0.13842350      -0.15291147      -0.26630658      -0.58448845       3.31003366
O        1.42949045      -0.03410950       0.65567052       1.08453573       0.11050515      -0.71365415
O       -0.70229256      -0.18521149       0.10958254      -0.81363807       0.74494574      -1.17555806
O        0.52709442       0.72762352      -1.27247548      -3.58526115       0.26994590      -1.67480685
C       -0.96902657      -0.69810450       1.34668958      -1.35897862      -4.59237804       1.53598750
C        1.57160044       1.16148651      -1.95995545       5.41656775      -1.97407533      -1.44248181
C       -2.49717665      -1.10268545       1.34512448      -1.02956413      -0.24168576      -0.54161276
H       -0.43880254      -1.69951952       1.43858349      -0.15499997       1.11801652       0.06716208
H       -0.64757156      -0.14690450       2.22884560      -0.14845357       0.74440321      -0.34567540
H        2.14136338       1.86626852      -1.34006846      -0.27450343       0.89718352      -1.01816433
H        2.34003448       0.29736251      -2.00338149      -0.76252817       0.94565445       0.01603729
H       -2.90330148      -1.17153251       2.44921756       0.50776349       0.50343026      -2.36306342
H       -3.01518655      -0.35831249       0.60614651       0.43255964      -0.97938755       2.00419893
H       -2.75708961      -2.14071441       0.82822353       1.09623113       1.95854864       1.16761681
H        1.34559643       1.25011551      -3.05100346      -0.14332594       1.08131874       1.17747305
23
Properties=species:S:1:pos:R:3:forces:R:3 charge=0 multiplicity=1 energy=-19715.979457009707 dipoleMoment="3.5222024425294074 1.30493162720401 -2.1526306532935426" atomizationEnergy=-1.0994573505396776 config_type=VC:EMC Nmols=2 pbc="F F F"
C       -0.72762960      -0.88461655      -3.33485961      -3.31686156       0.08771294      -2.20614522
O       -1.79419661      -1.03026855      -2.37344670       1.28249299       0.78331309      -0.09540338
C       -2.99269271      -1.11811054      -3.02793550       3.44790073       0.66301876      -0.70378950
O       -2.76625061      -1.02757156      -4.32514763       2.15485529      -1.11098355      -2.49022599
C       -1.36539066      -1.03745353      -4.55730867      -0.20237102       0.56835622       1.64310592
O       -4.04988670      -1.21654856      -2.59292650      -3.65280662      -0.48235968       2.47742819
H       -1.09450066      -1.20259857      -5.61465073       0.08318974       0.57576650       0.91794913
H        0.10257138      -0.20556356      -3.13660669       0.21233574      -1.08249930       0.46282796
C        2.02371836       0.35288844       2.53989840      -1.93078209       1.02518706       1.22412214
O        2.93887544       0.10966944       1.82600236       0.96415646      -0.31506722      -0.69850293
O        1.85624635       1.46783948       3.28992748      -0.28768157       0.00379905      -0.52172147
O        0.90513837      -0.41702655       2.73619938       1.58574897      -0.64124594      -0.43866122
C        2.66180539       2.68257356       3.06741548       0.20105974      -2.20544333      -0.76464691
C        1.03940344      -1.74678457       2.09476328      -2.00692215       1.88932610      -0.99017365
C        2.06451750       3.72800255       3.88714933      -1.74047494       1.75148477       2.54413330
H        3.65855145       2.42063546       3.39917827       0.41855163       0.16657490       0.06288357
H        2.72075343       2.93739152       2.00834846      -0.23208290      -0.20483363      -0.12810355
H        1.77583134      -2.34212661       2.58600736       0.69694036      -0.32763883       0.07202143
H        0.03262238      -2.17984653       2.17879343       0.35452840      -0.01195157       0.35402307
H        2.59844232       4.68231964       3.80221939       0.38696771      -0.29272201       0.12375067
H        1.01191044       4.04602337       3.66509342       0.71016751      -0.81905890      -0.30149280
H        2.02607131       3.41605139       4.98573828       0.28172224       0.44752307      -1.35927371
H        1.15985835      -1.55689359       1.00294042       0.59289534      -0.46184036       0.81441497